Water                                                                   
SP        RB3LYP                                                      STO-3G              
Number of atoms                            I                3
Info1-9                                    I   N=           9
          14          14           0           0           0         110
           1          18        -502
Charge                                     I                0
Multiplicity                               I                1
Number of electrons                        I               10
Number of alpha electrons                  I                5
Number of beta electrons                   I                5
Number of basis functions                  I                7
Number of independent functions            I                7
Number of point charges in /Mol/           I                0
Number of translation vectors              I                0
Atomic numbers                             I   N=           3
           8           1           1
Nuclear charges                            R   N=           3
  8.00000000E+00  1.00000000E+00  1.00000000E+00
Current cartesian coordinates              R   N=           9
  1.84889275E-32 -6.93889390E-17  2.09404100E-01  0.00000000E+00 -1.48149973E+00
 -8.37616409E-01  1.81431390E-16  1.48149973E+00 -8.37616409E-01
Force Field                                I                0
Int Atom Types                             I   N=           3
           0           0           0
MM charges                                 R   N=           3
  0.00000000E+00  0.00000000E+00  0.00000000E+00
Integer atomic weights                     I   N=           3
          16           1           1
Real atomic weights                        R   N=           3
  1.59949146E+01  1.00782504E+00  1.00782504E+00
Atom fragment info                         I   N=           3
           0           0           0
Atom residue num                           I   N=           3
           0           0           0
Nuclear spins                              I   N=           3
           0           1           1
Nuclear ZEff                               R   N=           3
 -5.60000000E+00 -1.00000000E+00 -1.00000000E+00
Nuclear ZNuc                               R   N=           3
  8.00000000E+00  1.00000000E+00  1.00000000E+00
Nuclear QMom                               R   N=           3
  0.00000000E+00  0.00000000E+00  0.00000000E+00
Nuclear GFac                               R   N=           3
  0.00000000E+00  2.79284600E+00  2.79284600E+00
MicOpt                                     I   N=           3
          -1          -1          -1
Number of contracted shells                I                4
Number of primitive shells                 I               12
Pure/Cartesian d shells                    I                0
Pure/Cartesian f shells                    I                0
Highest angular momentum                   I                1
Largest degree of contraction              I                3
Shell types                                I   N=           4
           0          -1           0           0
Number of primitives per shell             I   N=           4
           3           3           3           3
Shell to atom map                          I   N=           4
           1           1           2           3
Primitive exponents                        R   N=          12
  1.30709321E+02  2.38088661E+01  6.44360831E+00  5.03315132E+00  1.16959612E+00
  3.80388960E-01  3.42525091E+00  6.23913730E-01  1.68855404E-01  3.42525091E+00
  6.23913730E-01  1.68855404E-01
Contraction coefficients                   R   N=          12
  1.54328967E-01  5.35328142E-01  4.44634542E-01 -9.99672292E-02  3.99512826E-01
  7.00115469E-01  1.54328967E-01  5.35328142E-01  4.44634542E-01  1.54328967E-01
  5.35328142E-01  4.44634542E-01
P(S=P) Contraction coefficients            R   N=          12
  0.00000000E+00  0.00000000E+00  0.00000000E+00  1.55916275E-01  6.07683719E-01
  3.91957393E-01  0.00000000E+00  0.00000000E+00  0.00000000E+00  0.00000000E+00
  0.00000000E+00  0.00000000E+00
Coordinates of each shell                  R   N=          12
  2.58110481E-33 -1.16242626E-17  2.09404100E-01  2.58110481E-33 -1.16242626E-17
  2.09404100E-01  0.00000000E+00 -1.48149973E+00 -8.37616409E-01  1.81431390E-16
  1.48149973E+00 -8.37616409E-01
Constraint Structure                       R   N=           9
  2.58110481E-33 -1.16242626E-17  2.09404100E-01  0.00000000E+00 -1.48149973E+00
 -8.37616409E-01  1.81431390E-16  1.48149973E+00 -8.37616409E-01
Num ILSW                                   I              100
ILSW                                       I   N=         100
           0           0           0           0           2           0
           0           0           0           0         402          -1
           0           0           0           0           0           0
           0           0           1           0           0           0
           1           0           0           0           0           0
           0           0      100000           0          -1           0
           0           0           0           0           0           0
           0           0           0           1           0           0
           0           0           1           0           0           0
           0           0           4          41           0           0
           0           0           5           0           0           0
           0           0           0           0           0           0
           0           0           0           0           0           0
           0           0           0           0           0           0
           0           0           0           0           0           0
           0           0           0           0           0           0
           0           0           0           0
Num RLSW                                   I               41
RLSW                                       R   N=          41
  8.00000000E-01  7.20000000E-01  1.00000000E+00  8.10000000E-01  2.00000000E-01
  0.00000000E+00  0.00000000E+00  1.00000000E+00  0.00000000E+00  0.00000000E+00
  0.00000000E+00  0.00000000E+00  1.00000000E+00  0.00000000E+00  0.00000000E+00
  0.00000000E+00  0.00000000E+00  1.00000000E+00  0.00000000E+00  0.00000000E+00
  0.00000000E+00  0.00000000E+00  1.00000000E+00  0.00000000E+00  0.00000000E+00
  0.00000000E+00  0.00000000E+00  1.00000000E+00  0.00000000E+00  0.00000000E+00
  0.00000000E+00  0.00000000E+00  1.00000000E+00  0.00000000E+00  0.00000000E+00
  0.00000000E+00  0.00000000E+00  0.00000000E+00  1.00000000E+00  1.00000000E+00
  0.00000000E+00
MxBond                                     I                2
NBond                                      I   N=           3
           2           1           1
IBond                                      I   N=           6
           2           3           1           0           1           0
RBond                                      R   N=           6
  1.00000000E+00  1.00000000E+00  1.00000000E+00  0.00000000E+00  1.00000000E+00
  0.00000000E+00
Virial Ratio                               R      2.009684958663016E+00
SCF Energy                                 R     -7.531001493186845E+01
Total Energy                               R     -7.531001493186845E+01
RMS Density                                R      3.393319822572727E-09
External E-field                           R   N=          35
  0.00000000E+00  0.00000000E+00  0.00000000E+00  0.00000000E+00  0.00000000E+00
  0.00000000E+00  0.00000000E+00  0.00000000E+00  0.00000000E+00  0.00000000E+00
  0.00000000E+00  0.00000000E+00  0.00000000E+00  0.00000000E+00  0.00000000E+00
  0.00000000E+00  0.00000000E+00  0.00000000E+00  0.00000000E+00  0.00000000E+00
  0.00000000E+00  0.00000000E+00  0.00000000E+00  0.00000000E+00  0.00000000E+00
  0.00000000E+00  0.00000000E+00  0.00000000E+00  0.00000000E+00  0.00000000E+00
  0.00000000E+00  0.00000000E+00  0.00000000E+00  0.00000000E+00  0.00000000E+00
IOpCl                                      I                0
IROHF                                      I                0
Alpha Orbital Energies                     R   N=           7
 -1.88286215E+01 -9.28452170E-01 -4.50580951E-01 -2.16657564E-01 -1.40444431E-01
  3.45493188E-01  4.81140358E-01
Alpha MO coefficients                      R   N=          49
  9.93395328E-01  2.99676646E-02  0.00000000E+00  0.00000000E+00 -4.62934619E-03
 -7.20982985E-03 -7.20982985E-03 -2.27981882E-01  8.01127297E-01  0.00000000E+00
  0.00000000E+00 -1.83766751E-01  1.74033032E-01  1.74033032E-01  0.00000000E+00
  0.00000000E+00  0.00000000E+00  6.00840485E-01  0.00000000E+00 -4.41404373E-01
  4.41404373E-01 -1.19104444E-01  5.90230674E-01  0.00000000E+00  0.00000000E+00
  7.71781572E-01 -2.71198213E-01 -2.71198213E-01  0.00000000E+00  0.00000000E+00
  1.00000000E+00  0.00000000E+00  0.00000000E+00  0.00000000E+00  0.00000000E+00
 -1.32907612E-01  8.78735011E-01  0.00000000E+00  0.00000000E+00 -7.22820873E-01
 -7.97665033E-01 -7.97665033E-01  0.00000000E+00  0.00000000E+00  0.00000000E+00
  1.00235511E+00  0.00000000E+00  8.33781177E-01 -8.33781177E-01
Total SCF Density                          R   N=          28
  2.10599177E+00 -4.46343733E-01  1.98215051E+00 -3.36658075E-33  1.89924343E-32
  2.00000000E+00  6.06469273E-18 -3.42137281E-17 -6.16297582E-33  7.22018576E-01
 -1.09251792E-01  6.16339732E-01  6.34440425E-32 -2.98016231E-17  1.25887689E+00
 -2.90753542E-02 -4.17259067E-02 -3.08148791E-33 -5.30427234E-01 -4.82507783E-01
  5.97451538E-01 -2.90753542E-02 -4.17259067E-02 -2.15704154E-32  5.30427234E-01
 -4.82507783E-01 -1.81899743E-01  5.97451538E-01
Mulliken Charges                           R   N=           3
 -3.73755666E-01  1.86877833E-01  1.86877833E-01
ONIOM Charges                              I   N=          16
           0           0           0           0           0           0
           0           0           0           0           0           0
           0           0           0           0
ONIOM Multiplicities                       I   N=          16
           1           0           0           0           0           0
           0           0           0           0           0           0
           0           0           0           0
Atom Layers                                I   N=           3
           1           1           1
Atom Modifiers                             I   N=           3
           0           0           0
Force Field                                I                0
Int Atom Modified Types                    I   N=           3
           0           0           0
Link Atoms                                 I   N=           3
           0           0           0
Atom Modified MM Charges                   R   N=           3
  0.00000000E+00  0.00000000E+00  0.00000000E+00
Link Distances                             R   N=          12
  0.00000000E+00  0.00000000E+00  0.00000000E+00  0.00000000E+00  0.00000000E+00
  0.00000000E+00  0.00000000E+00  0.00000000E+00  0.00000000E+00  0.00000000E+00
  0.00000000E+00  0.00000000E+00
Cartesian Gradient                         R   N=           9
  0.00000000E+00  0.00000000E+00  0.00000000E+00  0.00000000E+00  0.00000000E+00
  0.00000000E+00  0.00000000E+00  0.00000000E+00  0.00000000E+00
Dipole Moment                              R   N=           3
  3.94353960E-17  5.55111512E-17 -6.47750274E-01
Quadrupole Moment                          R   N=           6
 -6.23471283E-01  7.73919231E-01 -1.50447948E-01  5.82667630E-17 -3.55402147E-17
  2.22044605E-16
QEq coupling tensors                       R   N=          18
  2.65842527E+00  1.21637458E-16 -2.42125893E+00 -1.11094820E-16 -1.04360964E-14
 -2.37166346E-01  2.78743244E-01  3.26444671E-18 -2.79511242E-01 -2.85338828E-18
 -3.28605275E-01  7.67998428E-04  2.78743244E-01 -1.30314732E-16 -2.79511242E-01
  8.71669510E-17  3.28605275E-01  7.67998428E-04
